Title: cs_amp test
Date: Tue Feb 27 23:42:42  2018
Plotname: AC Analysis
Flags: complex
No. Variables: 2
No. Points: 101
Variables:
	0	frequency	frequency	grid=3
	1	v(vd)	voltage
Values:
0		1.000000000000000e+06,4.499106532264623e-317
	-3.948256998140270e-01,1.993507814318610e-06
1		1.122018454301963e+06,4.499106532264623e-317
	-3.948256998130609e-01,2.236752556458624e-06
2		1.258925411794167e+06,4.499106532264623e-317
	-3.948256998118447e-01,2.509677646050804e-06
3		1.412537544622754e+06,4.499106532264623e-317
	-3.948256998103135e-01,2.815904633214065e-06
4		1.584893192461113e+06,4.499106532264623e-317
	-3.948256998083859e-01,3.159496964014864e-06
5		1.778279410038922e+06,4.499106532264623e-317
	-3.948256998059593e-01,3.545013899927627e-06
6		1.995262314968878e+06,4.499106532264623e-317
	-3.948256998029042e-01,3.977571016464362e-06
7		2.238721138568338e+06,4.499106532264623e-317
	-3.948256997990581e-01,4.462908083753517e-06
8		2.511886431509578e+06,4.499106532264623e-317
	-3.948256997942162e-01,5.007465229802093e-06
9		2.818382931264451e+06,4.499106532264623e-317
	-3.948256997881206e-01,5.618468397081217e-06
10		3.162277660168376e+06,4.499106532264623e-317
	-3.948256997804466e-01,6.304025226392077e-06
11		3.548133892335751e+06,4.499106532264623e-317
	-3.948256997707857e-01,7.073232640332867e-06
12		3.981071705534968e+06,4.499106532264623e-317
	-3.948256997586234e-01,7.936297553933853e-06
13		4.466835921509625e+06,4.499106532264623e-317
	-3.948256997433118e-01,8.904672314217302e-06
14		5.011872336272716e+06,4.499106532264623e-317
	-3.948256997240359e-01,9.991206665882768e-06
15		5.623413251903482e+06,4.499106532264623e-317
	-3.948256996997687e-01,1.121031825960984e-05
16		6.309573444801922e+06,4.499106532264623e-317
	-3.948256996692183e-01,1.257818396551973e-05
17		7.079457843841366e+06,4.499106532264623e-317
	-3.948256996307575e-01,1.411295453040857e-05
18		7.943282347242801e+06,4.499106532264623e-317
	-3.948256995823383e-01,1.583499542712306e-05
19		8.912509381337438e+06,4.499106532264623e-317
	-3.948256995213820e-01,1.776715709200246e-05
20		9.999999999999980e+06,4.499106532264623e-317
	-3.948256994446428e-01,1.993507813627247e-05
21		1.122018454301961e+07,4.499106532264623e-317
	-3.948256993480336e-01,2.236752555482048e-05
22		1.258925411794164e+07,4.499106532264623e-317
	-3.948256992264101e-01,2.509677644671356e-05
23		1.412537544622751e+07,4.499106532264623e-317
	-3.948256990732950e-01,2.815904631265544e-05
24		1.584893192461110e+07,4.499106532264623e-317
	-3.948256988805346e-01,3.159496961262507e-05
25		1.778279410038918e+07,4.499106532264623e-317
	-3.948256986378635e-01,3.545013896039821e-05
26		1.995262314968874e+07,4.499106532264623e-317
	-3.948256983323589e-01,3.977571010972692e-05
27		2.238721138568334e+07,4.499106532264623e-317
	-3.948256979477511e-01,4.462908075996330e-05
28		2.511886431509573e+07,4.499106532264623e-317
	-3.948256974635589e-01,5.007465218844781e-05
29		2.818382931264446e+07,4.499106532264623e-317
	-3.948256968539968e-01,5.618468381603603e-05
30		3.162277660168370e+07,4.499106532264623e-317
	-3.948256960866037e-01,6.304025204529367e-05
31		3.548133892335743e+07,4.499106532264623e-317
	-3.948256951205131e-01,7.073232609450974e-05
32		3.981071705534960e+07,4.499106532264623e-317
	-3.948256939042770e-01,7.936297510312024e-05
33		4.466835921509616e+07,4.499106532264623e-317
	-3.948256923731263e-01,8.904672252599840e-05
34		5.011872336272705e+07,4.499106532264623e-317
	-3.948256904455220e-01,9.991206578845789e-05
35		5.623413251903471e+07,4.499106532264623e-317
	-3.948256880188119e-01,1.121031813666685e-04
36		6.309573444801909e+07,4.499106532264623e-317
	-3.948256849637649e-01,1.257818379185814e-04
37		7.079457843841353e+07,4.499106532264623e-317
	-3.948256811176886e-01,1.411295428510507e-04
38		7.943282347242785e+07,4.499106532264623e-317
	-3.948256762757656e-01,1.583499508062266e-04
39		8.912509381337421e+07,4.499106532264623e-317
	-3.948256701801456e-01,1.776715660255765e-04
40		9.999999999999960e+07,4.499106532264623e-317
	-3.948256625062148e-01,1.993507744491331e-04
41		1.122018454301959e+08,4.499106532264623e-317
	-3.948256528453085e-01,2.236752457824974e-04
42		1.258925411794162e+08,4.499106532264623e-317
	-3.948256406829483e-01,2.509677506727074e-04
43		1.412537544622748e+08,4.499106532264623e-317
	-3.948256253714443e-01,2.815904436414072e-04
44		1.584893192461106e+08,4.499106532264623e-317
	-3.948256060954036e-01,3.159496686027494e-04
45		1.778279410038915e+08,4.499106532264623e-317
	-3.948255818283071e-01,3.545013507260042e-04
46		1.995262314968870e+08,4.499106532264623e-317
	-3.948255512778441e-01,3.977570461806675e-04
47		2.238721138568329e+08,4.499106532264623e-317
	-3.948255128170924e-01,4.462907300278743e-04
48		2.511886431509568e+08,4.499106532264623e-317
	-3.948254643978787e-01,5.007464123114616e-04
49		2.818382931264440e+08,4.499106532264623e-317
	-3.948254034417065e-01,5.618466833843699e-04
50		3.162277660168363e+08,4.499106532264623e-317
	-3.948253267024421e-01,6.304023018260559e-04
51		3.548133892335737e+08,4.499106532264623e-317
	-3.948252300934479e-01,7.073229521264484e-04
52		3.981071705534952e+08,4.499106532264623e-317
	-3.948251084699549e-01,7.936293148133171e-04
53		4.466835921509608e+08,4.499106532264623e-317
	-3.948249553550885e-01,8.904666090859331e-04
54		5.011872336272696e+08,4.499106532264623e-317
	-3.948247625949548e-01,9.991197875157578e-04
55		5.623413251903460e+08,4.499106532264623e-317
	-3.948245199244234e-01,1.121030584238331e-03
56		6.309573444801898e+08,4.499106532264623e-317
	-3.948242144204818e-01,1.257816642572610e-03
57		7.079457843841339e+08,4.499106532264623e-317
	-3.948238298140556e-01,1.411292975480050e-03
58		7.943282347242770e+08,4.499106532264623e-317
	-3.948233456236471e-01,1.583496043066240e-03
59		8.912509381337404e+08,4.499106532264623e-317
	-3.948227360646636e-01,1.776710765821616e-03
60		9.999999999999942e+08,4.499106532264623e-317
	-3.948219686763613e-01,1.993500830924367e-03
61		1.122018454301957e+09,4.499106532264623e-317
	-3.948210025932992e-01,2.236742692161018e-03
62		1.258925411794160e+09,4.499106532264623e-317
	-3.948197863692743e-01,2.509663712375999e-03
63		1.412537544622746e+09,4.499106532264623e-317
	-3.948182552378925e-01,2.815884951403566e-03
64		1.584893192461104e+09,4.499106532264623e-317
	-3.948163276639465e-01,3.159469162768906e-03
65		1.778279410038912e+09,4.499106532264623e-317
	-3.948139010020433e-01,3.544974629713401e-03
66		1.995262314968867e+09,4.499106532264623e-317
	-3.948108460314304e-01,3.977515545971493e-03
67		2.238721138568325e+09,4.499106532264623e-317
	-3.948070000762121e-01,4.462829729882658e-03
68		2.511886431509563e+09,4.499106532264623e-317
	-3.948021583449486e-01,5.007354552520873e-03
69		2.818382931264435e+09,4.499106532264623e-317
	-3.947960630290153e-01,5.618312062160853e-03
70		3.162277660168358e+09,4.499106532264623e-317
	-3.947883895800931e-01,6.303804399038524e-03
71		3.548133892335730e+09,4.499106532264623e-317
	-3.947787294374657e-01,7.072920716234277e-03
72		3.981071705534945e+09,4.499106532264623e-317
	-3.947665682875950e-01,7.935856954464490e-03
73		4.466835921509600e+09,4.499106532264623e-317
	-3.947512587018719e-01,8.904049959870916e-03
74		5.011872336272687e+09,4.499106532264623e-317
	-3.947319857011854e-01,9.990327582910803e-03
75		5.623413251903450e+09,4.499106532264623e-317
	-3.947077234226694e-01,1.120907655019546e-02
76		6.309573444801887e+09,4.499106532264623e-317
	-3.946771805955007e-01,1.257643005465441e-02
77		7.079457843841327e+09,4.499106532264623e-317
	-3.946387319451519e-01,1.411047715490658e-02
78		7.943282347242756e+09,4.499106532264623e-317
	-3.945903319095889e-01,1.583149620025995e-02
79		8.912509381337389e+09,4.499106532264623e-317
	-3.945294061302422e-01,1.776221458547960e-02
80		9.999999999999926e+09,4.499106532264623e-317
	-3.944527150307279e-01,1.992809716307400e-02
81		1.122018454301955e+10,4.499106532264623e-317
	-3.943561823632342e-01,2.235766556210571e-02
82		1.258925411794158e+10,4.499106532264623e-317
	-3.942346798213616e-01,2.508285042631681e-02
83		1.412537544622743e+10,4.499106532264623e-317
	-3.940817566121916e-01,2.813937811184892e-02
84		1.584893192461101e+10,4.499106532264623e-317
	-3.938893001604991e-01,3.156719256407302e-02
85		1.778279410038909e+10,4.499106532264623e-317
	-3.936471107843659e-01,3.541091176601794e-02
86		1.995262314968864e+10,4.499106532264623e-317
	-3.933423691271665e-01,3.972031609601862e-02
87		2.238721138568322e+10,4.499106532264623e-317
	-3.929589702510941e-01,4.455086284089143e-02
88		2.511886431509560e+10,4.499106532264623e-317
	-3.924766925062397e-01,4.996421655671352e-02
89		2.818382931264431e+10,4.499106532264623e-317
	-3.918701625502456e-01,5.602877836825430e-02
90		3.162277660168353e+10,4.499106532264623e-317
	-3.911075702711271e-01,6.282018786014010e-02
91		3.548133892335725e+10,4.499106532264623e-317
	-3.901490791098199e-01,7.042175788468852e-02
92		3.981071705534939e+10,4.499106532264623e-317
	-3.889448689591432e-01,7.892478401723860e-02
93		4.466835921509593e+10,4.499106532264623e-317
	-3.874327415306789e-01,8.842864478285423e-02
94		5.011872336272680e+10,4.499106532264623e-317
	-3.855352137719608e-01,9.904057403127847e-02
95		5.623413251903442e+10,4.499106532264623e-317
	-3.831560268251001e-01,1.108749405268658e-01
96		6.309573444801878e+10,4.499106532264623e-317
	-3.801760113234519e-01,1.240518095035769e-01
97		7.079457843841316e+10,4.499106532264623e-317
	-3.764482824726175e-01,1.386944847796709e-01
98		7.943282347242744e+10,4.499106532264623e-317
	-3.717928020484763e-01,1.549256380581264e-01
99		8.912509381337375e+10,4.499106532264623e-317
	-3.659904555258688e-01,1.728615283812757e-01
100		9.999999999999908e+10,4.499106532264623e-317
	-3.587769724089694e-01,1.926037113007468e-01
Title: cs_amp test
Date: Tue Feb 27 23:42:42  2018
Plotname: Operating Point
Flags: real
No. Variables: 1
No. Points: 1
Variables:
	0	v(vd)	voltage
Values:
0		1.780225576879737e+00